Scalability to Sustainability

I. Introduction

  A. Measures
    1. Administrative scalability
    2. Functional scalability
	3. Geographic scalability
	4. Load scalability
	5. Generation scalability
	
  B. Some Examples(subject to change)
    1. Example 1 - Routing Protocol
    2. Example 2 - Domain Name System
	3. Example 3 - Online transaction processing or database management systems

II. Horizontal and vertical scaling

  A. Scale Horizontally
  B. Scale Vertically
  C. Tradeoffs 

III. Weak versus strong scaling

  A. Strong Scaling
  B. Weak Scaling

  
IV. Strong versus eventual consistency (storage)

  A. Defined
  B. String Data Indicators
  C. Eventually Consistent Indicators
  
V. Closing

  A. Summary of Everything

Reverences

1.  "The Weak Scaling of DL_POLY 3". STFC Computational Science and Engineering Department. March 7, 2014.
		https://web.archive.org/web/20140307224104/http://www.stfc.ac.uk/cse/25052.aspx

2.  "The Scalability Revolution: From Dead End to Open Road." An SBA Concept Paper. February 2007
		https://web.archive.org/web/20140307224104/http://www.stfc.ac.uk/cse/25052.aspx

3.  Werner Vogels "Consistency vs. availability: eventual consistency." Jan 11, 2008
		http://www.infoq.com/news/2008/01/consistency-vs-availability

4.  "Google’s Globally-Distributed Database." Google, Inc. Published in the Proceedings of OSDI 2012 
		http://static.googleusercontent.com/external_content/untrusted_dlcp/research.google.com/en//archive/spanner-osdi2012.pdf

5.  "Dispelling myths about the limits of database-centric architecture." Base One International Corp. 2012
		http://www.boic.com/scalability.htm

6.  "Scalable Definition." The Linux Information Project. March 7, 2006
		http://www.linfo.org/scalable.html
		
7.  Clifford Neuman "Scale in Distributed Systems" Computer Society Press, 1994.
		http://citeseerx.ist.psu.edu/viewdoc/download;jsessionid=CD576AA37D672E5F791D13BA1939F396?doi=10.1.1.31.3576&rep=rep1&type=pdf

